# Force and moment coefficients
# dragDir             : (9.84807753012208e-01 1.73648177666930e-01 0.00000000000000e+00)
# sideDir             : (0.00000000000000e+00 0.00000000000000e+00 -1.00000000000000e+00)
# liftDir             : (-1.73648177666930e-01 9.84807753012208e-01 0.00000000000000e+00)
# rollAxis            : (9.84807753012208e-01 1.73648177666930e-01 0.00000000000000e+00)
# pitchAxis           : (0.00000000000000e+00 0.00000000000000e+00 -1.00000000000000e+00)
# yawAxis             : (-1.73648177666930e-01 9.84807753012208e-01 0.00000000000000e+00)
# magUInf             : 1.00000000000000e+00
# lRef                : 1.00000000000000e+00
# Aref                : 1.99895000000000e+00
# CofR                : (2.50000000000000e-01 0.00000000000000e+00 0.00000000000000e+00)
#
# Time                	Cd                    	Cd(f)                 	Cd(r)                 	Cl                    	Cl(f)                 	Cl(r)                 	CmPitch               	CmRoll                	CmYaw                 	Cs                    	Cs(f)                 	Cs(r)                 
50                    	7.88566464686030e-02	3.86620180616140e-02	4.01946284069890e-02	1.07427213778690e+00	6.33685285028680e-01	4.40586852758219e-01	9.65492161352304e-02	-7.66305172687519e-04	5.62504173398445e-05	-2.43540817703375e-15	5.62504173386268e-05	-5.62504173410622e-05
100                   	1.08524080674272e-01	5.29758774982253e-02	5.55482031760471e-02	1.80305308086807e+00	9.00489327837379e-01	9.02563753030689e-01	-1.03721259665523e-03	-1.28616283891088e-03	7.74129398446069e-05	-2.41837045975896e-15	7.74129398433977e-05	-7.74129398458161e-05
150                   	8.43676993167045e-02	4.07367225655756e-02	4.36309767511289e-02	2.02870654018288e+00	1.00759180777030e+00	1.02111473241259e+00	-6.76146232114436e-03	-1.44712709277667e-03	6.01815891127301e-05	-2.41427183965375e-15	6.01815891115229e-05	-6.01815891139372e-05
200                   	8.14398668929127e-02	3.92285911217656e-02	4.22112757711471e-02	2.09069123427621e+00	1.03336775703801e+00	1.05732347723821e+00	-1.19778601001002e-02	-1.49134232469076e-03	5.80930930490219e-05	-2.41243101651481e-15	5.80930930478157e-05	-5.80930930502281e-05
250                   	7.97949487372087e-02	3.83928453814574e-02	4.14021033557514e-02	2.10931761419595e+00	1.04163315947509e+00	1.06768445472086e+00	-1.30256476228865e-02	-1.50462898714700e-03	5.69197318056065e-05	-2.41199558933058e-15	5.69197318044005e-05	-5.69197318068125e-05
300                   	7.94265995487394e-02	3.82050317564610e-02	4.12215677922783e-02	2.11441911878593e+00	1.04383464843792e+00	1.07058447034800e+00	-1.33749109550407e-02	-1.50826801790865e-03	5.66569791207395e-05	-2.41186226438949e-15	5.66569791195335e-05	-5.66569791219454e-05
350                   	7.93081382849387e-02	3.81447336579207e-02	4.11634046270180e-02	2.11591558482876e+00	1.04448769904151e+00	1.07142788578725e+00	-1.34700933728727e-02	-1.50933548454865e-03	5.65724777397394e-05	-2.41182484415917e-15	5.65724777385335e-05	-5.65724777409453e-05
400                   	7.92753608019081e-02	3.81280446763394e-02	4.11473161255687e-02	2.11633648703458e+00	1.04467177739700e+00	1.07166470963757e+00	-1.34964661202849e-02	-1.50963572461461e-03	5.65490967416580e-05	-2.41181402422892e-15	5.65490967404521e-05	-5.65490967428639e-05
450                   	7.92656008593853e-02	3.81230802507267e-02	4.11425206086587e-02	2.11645488236824e+00	1.04472365994134e+00	1.07173122242691e+00	-1.35037812427856e-02	-1.50972017896599e-03	5.65421347306490e-05	-2.41181124285734e-15	5.65421347294431e-05	-5.65421347318549e-05
500                   	7.92629184233393e-02	3.81217144898340e-02	4.11412039335054e-02	2.11648928866225e+00	1.04473851799602e+00	1.07175077066623e+00	-1.35061263351085e-02	-1.50974472183570e-03	5.65402212819678e-05	-2.41181033937209e-15	5.65402212807619e-05	-5.65402212831737e-05
550                   	7.92621808451082e-02	3.81213381451935e-02	4.11408426999147e-02	2.11649988064332e+00	1.04474312444143e+00	1.07175675620189e+00	-1.35068158802299e-02	-1.50975227736061e-03	5.65396951489784e-05	-2.41181005140660e-15	5.65396951477725e-05	-5.65396951501843e-05
600                   	7.92619398860113e-02	3.81212155910478e-02	4.11407242949635e-02	2.11650278899125e+00	1.04474436849293e+00	1.07175842049833e+00	-1.35070260026995e-02	-1.50975435195787e-03	5.65395232668270e-05	-2.41181001571004e-15	5.65395232656211e-05	-5.65395232680329e-05
650                   	7.92618209044773e-02	3.81211555796693e-02	4.11406653248081e-02	2.11650351882904e+00	1.04474468094133e+00	1.07175883788770e+00	-1.35070784731845e-02	-1.50975487256941e-03	5.65394383943220e-05	-2.41180997690461e-15	5.65394383931161e-05	-5.65394383955280e-05
700                   	7.92618568995718e-02	3.81211731738171e-02	4.11406837257547e-02	2.11650408434881e+00	1.04474494479465e+00	1.07175913955417e+00	-1.35070973797589e-02	-1.50975527596879e-03	5.65394640705248e-05	-2.41180994408950e-15	5.65394640693189e-05	-5.65394640717307e-05
750                   	7.92618434719890e-02	3.81211664952988e-02	4.11406769766902e-02	2.11650403489999e+00	1.04474490827780e+00	1.07175912662220e+00	-1.35071091722002e-02	-1.50975524069571e-03	5.65394544922870e-05	-2.41180998392809e-15	5.65394544910811e-05	-5.65394544934929e-05
800                   	7.92617921219392e-02	3.81211409260561e-02	4.11406511958831e-02	2.11650388660538e+00	1.04474484048106e+00	1.07175904612432e+00	-1.35071028216344e-02	-1.50975513491347e-03	5.65394178630171e-05	-2.41180996753145e-15	5.65394178618112e-05	-5.65394178642230e-05
850                   	7.92618482213061e-02	3.81211687573604e-02	4.11406794639457e-02	2.11650419274804e+00	1.04474499183057e+00	1.07175920091747e+00	-1.35071045434525e-02	-1.50975535329266e-03	5.65394578800924e-05	-2.41180994130501e-15	5.65394578788865e-05	-5.65394578812983e-05
900                   	7.92618412304292e-02	3.81211653497633e-02	4.11406758806660e-02	2.11650406960453e+00	1.04474492292669e+00	1.07175914667784e+00	-1.35071118755727e-02	-1.50975526545136e-03	5.65394528933344e-05	-2.41180998302591e-15	5.65394528921285e-05	-5.65394528945403e-05
950                   	7.92617916081911e-02	3.81211406609952e-02	4.11406509471959e-02	2.11650389808248e+00	1.04474484517914e+00	1.07175905290334e+00	-1.35071038621020e-02	-1.50975514310036e-03	5.65394174965458e-05	-2.41180996722901e-15	5.65394174953399e-05	-5.65394174977517e-05
1000                  	7.92618482141735e-02	3.81211687509527e-02	4.11406794632208e-02	2.11650419673128e+00	1.04474499346724e+00	1.07175920326404e+00	-1.35071048984002e-02	-1.50975535613402e-03	5.65394578750115e-05	-2.41180994122230e-15	5.65394578738056e-05	-5.65394578762174e-05
1050                  	7.92618408984924e-02	3.81211651847924e-02	4.11406757137000e-02	2.11650406820603e+00	1.04474492270310e+00	1.07175914550294e+00	-1.35071113999200e-02	-1.50975526445378e-03	5.65394526565561e-05	-2.41180998307856e-15	5.65394526553502e-05	-5.65394526577620e-05
1100                  	7.92617913594198e-02	3.81211405377543e-02	4.11406508216655e-02	2.11650389647758e+00	1.04474484475658e+00	1.07175905172100e+00	-1.35071034822073e-02	-1.50975514195557e-03	5.65394173190984e-05	-2.41180996727961e-15	5.65394173178925e-05	-5.65394173203043e-05
1150                  	7.92618479952877e-02	3.81211686422640e-02	4.11406793530237e-02	2.11650419567401e+00	1.04474499309783e+00	1.07175920257618e+00	-1.35071047391719e-02	-1.50975535537981e-03	5.65394577188700e-05	-2.41180994123037e-15	5.65394577176641e-05	-5.65394577200759e-05
1200                  	7.92618411634471e-02	3.81211653156536e-02	4.11406758477936e-02	2.11650407047182e+00	1.04474492330231e+00	1.07175914716952e+00	-1.35071119336042e-02	-1.50975526607002e-03	5.65394528455563e-05	-2.41180998300378e-15	5.65394528443504e-05	-5.65394528467622e-05
1250                  	7.92617915883384e-02	3.81211406508855e-02	4.11406509374529e-02	2.11650389833950e+00	1.04474484529045e+00	1.07175905304906e+00	-1.35071038793043e-02	-1.50975514328370e-03	5.65394174823855e-05	-2.41180996722245e-15	5.65394174811796e-05	-5.65394174835914e-05
1300                  	7.92618482082883e-02	3.81211687479558e-02	4.11406794603326e-02	2.11650419680746e+00	1.04474499350023e+00	1.07175920330723e+00	-1.35071049034993e-02	-1.50975535618839e-03	5.65394578708191e-05	-2.41180994122036e-15	5.65394578696132e-05	-5.65394578720250e-05
1350                  	7.92618408967523e-02	3.81211651839063e-02	4.11406757128460e-02	2.11650406822863e+00	1.04474492271288e+00	1.07175914551575e+00	-1.35071114014354e-02	-1.50975526446988e-03	5.65394526553118e-05	-2.41180998307798e-15	5.65394526541059e-05	-5.65394526565177e-05
1400                  	7.92617913589086e-02	3.81211405374940e-02	4.11406508214146e-02	2.11650389648430e+00	1.04474484475949e+00	1.07175905172481e+00	-1.35071034826570e-02	-1.50975514196033e-03	5.65394173187287e-05	-2.41180996727944e-15	5.65394173175228e-05	-5.65394173199346e-05
1450                  	7.92618479951299e-02	3.81211686421837e-02	4.11406793529462e-02	2.11650419567595e+00	1.04474499309867e+00	1.07175920257728e+00	-1.35071047393052e-02	-1.50975535538123e-03	5.65394577187587e-05	-2.41180994123032e-15	5.65394577175528e-05	-5.65394577199646e-05
1500                  	7.92618411634092e-02	3.81211653156342e-02	4.11406758477750e-02	2.11650407047244e+00	1.04474492330258e+00	1.07175914716986e+00	-1.35071119336441e-02	-1.50975526607044e-03	5.65394528455248e-05	-2.41180998300377e-15	5.65394528443189e-05	-5.65394528467307e-05
1550                  	7.92617915883262e-02	3.81211406508792e-02	4.11406509374469e-02	2.11650389833970e+00	1.04474484529054e+00	1.07175905304916e+00	-1.35071038793109e-02	-1.50975514328384e-03	5.65394174823791e-05	-2.41180996722245e-15	5.65394174811732e-05	-5.65394174835850e-05
1600                  	7.92618482082811e-02	3.81211687479521e-02	4.11406794603290e-02	2.11650419680751e+00	1.04474499350025e+00	1.07175920330726e+00	-1.35071049035059e-02	-1.50975535618842e-03	5.65394578708155e-05	-2.41180994122036e-15	5.65394578696096e-05	-5.65394578720214e-05
1650                  	7.92618408967490e-02	3.81211651839046e-02	4.11406757128444e-02	2.11650406822863e+00	1.04474492271288e+00	1.07175914551576e+00	-1.35071114014387e-02	-1.50975526446989e-03	5.65394526553124e-05	-2.41180998307798e-15	5.65394526541065e-05	-5.65394526565183e-05
1700                  	7.92617913589069e-02	3.81211405374931e-02	4.11406508214138e-02	2.11650389648430e+00	1.04474484475949e+00	1.07175905172481e+00	-1.35071034826570e-02	-1.50975514196034e-03	5.65394173187294e-05	-2.41180996727944e-15	5.65394173175235e-05	-5.65394173199353e-05
1750                  	7.92618479951322e-02	3.81211686421849e-02	4.11406793529473e-02	2.11650419567597e+00	1.04474499309868e+00	1.07175920257729e+00	-1.35071047393052e-02	-1.50975535538123e-03	5.65394577187587e-05	-2.41180994123032e-15	5.65394577175528e-05	-5.65394577199646e-05
1800                  	7.92618411634092e-02	3.81211653156342e-02	4.11406758477750e-02	2.11650407047244e+00	1.04474492330258e+00	1.07175914716986e+00	-1.35071119336441e-02	-1.50975526607044e-03	5.65394528455248e-05	-2.41180998300377e-15	5.65394528443189e-05	-5.65394528467307e-05
1850                  	7.92617915883262e-02	3.81211406508792e-02	4.11406509374469e-02	2.11650389833970e+00	1.04474484529054e+00	1.07175905304916e+00	-1.35071038793109e-02	-1.50975514328384e-03	5.65394174823775e-05	-2.41180996722245e-15	5.65394174811716e-05	-5.65394174835834e-05
1900                  	7.92618482082811e-02	3.81211687479521e-02	4.11406794603290e-02	2.11650419680751e+00	1.04474499350025e+00	1.07175920330726e+00	-1.35071049035059e-02	-1.50975535618842e-03	5.65394578708155e-05	-2.41180994122036e-15	5.65394578696096e-05	-5.65394578720214e-05
1950                  	7.92618408967490e-02	3.81211651839046e-02	4.11406757128444e-02	2.11650406822863e+00	1.04474492271287e+00	1.07175914551576e+00	-1.35071114014421e-02	-1.50975526446989e-03	5.65394526553108e-05	-2.41180998307798e-15	5.65394526541049e-05	-5.65394526565167e-05
2000                  	7.92617913589069e-02	3.81211405374931e-02	4.11406508214138e-02	2.11650389648430e+00	1.04474484475949e+00	1.07175905172481e+00	-1.35071034826570e-02	-1.50975514196034e-03	5.65394173187294e-05	-2.41180996727944e-15	5.65394173175235e-05	-5.65394173199353e-05
2050                  	7.92618479951322e-02	3.81211686421849e-02	4.11406793529473e-02	2.11650419567597e+00	1.04474499309868e+00	1.07175920257729e+00	-1.35071047393052e-02	-1.50975535538123e-03	5.65394577187571e-05	-2.41180994123032e-15	5.65394577175512e-05	-5.65394577199630e-05
2100                  	7.92618411634075e-02	3.81211653156333e-02	4.11406758477742e-02	2.11650407047244e+00	1.04474492330258e+00	1.07175914716986e+00	-1.35071119336441e-02	-1.50975526607044e-03	5.65394528455232e-05	-2.41180998300377e-15	5.65394528443173e-05	-5.65394528467291e-05
2150                  	7.92617915883301e-02	3.81211406508812e-02	4.11406509374489e-02	2.11650389833971e+00	1.04474484529054e+00	1.07175905304916e+00	-1.35071038793109e-02	-1.50975514328384e-03	5.65394174823791e-05	-2.41180996722245e-15	5.65394174811732e-05	-5.65394174835850e-05
2200                  	7.92618482082861e-02	3.81211687479546e-02	4.11406794603315e-02	2.11650419680751e+00	1.04474499350025e+00	1.07175920330726e+00	-1.35071049035093e-02	-1.50975535618846e-03	5.65394578708223e-05	-2.41180994122036e-15	5.65394578696164e-05	-5.65394578720282e-05
2250                  	7.92618408967490e-02	3.81211651839046e-02	4.11406757128444e-02	2.11650406822863e+00	1.04474492271288e+00	1.07175914551575e+00	-1.35071114014354e-02	-1.50975526446989e-03	5.65394526553124e-05	-2.41180998307798e-15	5.65394526541065e-05	-5.65394526565183e-05
2300                  	7.92617913589069e-02	3.81211405374931e-02	4.11406508214138e-02	2.11650389648430e+00	1.04474484475949e+00	1.07175905172481e+00	-1.35071034826570e-02	-1.50975514196034e-03	5.65394173187294e-05	-2.41180996727944e-15	5.65394173175235e-05	-5.65394173199353e-05
2350                  	7.92618479951322e-02	3.81211686421849e-02	4.11406793529473e-02	2.11650419567597e+00	1.04474499309868e+00	1.07175920257728e+00	-1.35071047393018e-02	-1.50975535538123e-03	5.65394577187571e-05	-2.41180994123032e-15	5.65394577175512e-05	-5.65394577199630e-05
2400                  	7.92618411634109e-02	3.81211653156350e-02	4.11406758477759e-02	2.11650407047244e+00	1.04474492330258e+00	1.07175914716986e+00	-1.35071119336441e-02	-1.50975526607044e-03	5.65394528455248e-05	-2.41180998300377e-15	5.65394528443189e-05	-5.65394528467307e-05
2450                  	7.92617915883285e-02	3.81211406508804e-02	4.11406509374481e-02	2.11650389833971e+00	1.04474484529054e+00	1.07175905304916e+00	-1.35071038793109e-02	-1.50975514328384e-03	5.65394174823775e-05	-2.41180996722245e-15	5.65394174811716e-05	-5.65394174835834e-05
2500                  	7.92618482082844e-02	3.81211687479538e-02	4.11406794603306e-02	2.11650419680751e+00	1.04474499350025e+00	1.07175920330726e+00	-1.35071049035059e-02	-1.50975535618842e-03	5.65394578708155e-05	-2.41180994122036e-15	5.65394578696096e-05	-5.65394578720214e-05
2550                  	7.92618408967490e-02	3.81211651839046e-02	4.11406757128444e-02	2.11650406822863e+00	1.04474492271287e+00	1.07175914551576e+00	-1.35071114014421e-02	-1.50975526446989e-03	5.65394526553108e-05	-2.41180998307798e-15	5.65394526541049e-05	-5.65394526565167e-05
2600                  	7.92617913589069e-02	3.81211405374931e-02	4.11406508214138e-02	2.11650389648430e+00	1.04474484475949e+00	1.07175905172481e+00	-1.35071034826570e-02	-1.50975514196034e-03	5.65394173187294e-05	-2.41180996727944e-15	5.65394173175235e-05	-5.65394173199353e-05
2650                  	7.92618479951283e-02	3.81211686421829e-02	4.11406793529454e-02	2.11650419567595e+00	1.04474499309867e+00	1.07175920257728e+00	-1.35071047393052e-02	-1.50975535538123e-03	5.65394577187603e-05	-2.41180994123032e-15	5.65394577175544e-05	-5.65394577199662e-05
2700                  	7.92618411634109e-02	3.81211653156350e-02	4.11406758477759e-02	2.11650407047244e+00	1.04474492330258e+00	1.07175914716986e+00	-1.35071119336441e-02	-1.50975526607044e-03	5.65394528455232e-05	-2.41180998300377e-15	5.65394528443173e-05	-5.65394528467291e-05
2750                  	7.92617915883301e-02	3.81211406508812e-02	4.11406509374489e-02	2.11650389833971e+00	1.04474484529054e+00	1.07175905304916e+00	-1.35071038793109e-02	-1.50975514328384e-03	5.65394174823791e-05	-2.41180996722245e-15	5.65394174811732e-05	-5.65394174835850e-05
2800                  	7.92618482082844e-02	3.81211687479538e-02	4.11406794603306e-02	2.11650419680751e+00	1.04474499350025e+00	1.07175920330726e+00	-1.35071049035059e-02	-1.50975535618842e-03	5.65394578708155e-05	-2.41180994122036e-15	5.65394578696096e-05	-5.65394578720214e-05
2850                  	7.92618408967473e-02	3.81211651839038e-02	4.11406757128436e-02	2.11650406822863e+00	1.04474492271288e+00	1.07175914551576e+00	-1.35071114014387e-02	-1.50975526446989e-03	5.65394526553108e-05	-2.41180998307798e-15	5.65394526541049e-05	-5.65394526565167e-05
2900                  	7.92617913589069e-02	3.81211405374931e-02	4.11406508214138e-02	2.11650389648430e+00	1.04474484475949e+00	1.07175905172481e+00	-1.35071034826570e-02	-1.50975514196034e-03	5.65394173187294e-05	-2.41180996727944e-15	5.65394173175235e-05	-5.65394173199353e-05
2950                  	7.92618479951306e-02	3.81211686421841e-02	4.11406793529465e-02	2.11650419567597e+00	1.04474499309868e+00	1.07175920257729e+00	-1.35071047393052e-02	-1.50975535538124e-03	5.65394577187594e-05	-2.41180994123032e-15	5.65394577175535e-05	-5.65394577199653e-05
3000                  	7.92618411634092e-02	3.81211653156342e-02	4.11406758477750e-02	2.11650407047244e+00	1.04474492330258e+00	1.07175914716986e+00	-1.35071119336441e-02	-1.50975526607044e-03	5.65394528455232e-05	-2.41180998300377e-15	5.65394528443173e-05	-5.65394528467291e-05
3050                  	7.92617915883295e-02	3.81211406508809e-02	4.11406509374486e-02	2.11650389833969e+00	1.04474484529054e+00	1.07175905304916e+00	-1.35071038793109e-02	-1.50975514328384e-03	5.65394174823791e-05	-2.41180996722245e-15	5.65394174811732e-05	-5.65394174835850e-05
3100                  	7.92618482082844e-02	3.81211687479538e-02	4.11406794603306e-02	2.11650419680751e+00	1.04474499350025e+00	1.07175920330726e+00	-1.35071049035059e-02	-1.50975535618842e-03	5.65394578708155e-05	-2.41180994122036e-15	5.65394578696096e-05	-5.65394578720214e-05
3150                  	7.92618408967490e-02	3.81211651839046e-02	4.11406757128444e-02	2.11650406822863e+00	1.04474492271288e+00	1.07175914551575e+00	-1.35071114014354e-02	-1.50975526446989e-03	5.65394526553108e-05	-2.41180998307798e-15	5.65394526541049e-05	-5.65394526565167e-05
3200                  	7.92617913589069e-02	3.81211405374931e-02	4.11406508214138e-02	2.11650389648430e+00	1.04474484475949e+00	1.07175905172481e+00	-1.35071034826570e-02	-1.50975514196034e-03	5.65394173187294e-05	-2.41180996727944e-15	5.65394173175235e-05	-5.65394173199353e-05
3250                  	7.92618479951322e-02	3.81211686421849e-02	4.11406793529473e-02	2.11650419567597e+00	1.04474499309868e+00	1.07175920257729e+00	-1.35071047393052e-02	-1.50975535538123e-03	5.65394577187603e-05	-2.41180994123032e-15	5.65394577175544e-05	-5.65394577199662e-05
3300                  	7.92618411634075e-02	3.81211653156333e-02	4.11406758477742e-02	2.11650407047244e+00	1.04474492330258e+00	1.07175914716986e+00	-1.35071119336441e-02	-1.50975526607044e-03	5.65394528455248e-05	-2.41180998300377e-15	5.65394528443189e-05	-5.65394528467307e-05
3350                  	7.92617915883261e-02	3.81211406508792e-02	4.11406509374469e-02	2.11650389833970e+00	1.04474484529054e+00	1.07175905304916e+00	-1.35071038793109e-02	-1.50975514328384e-03	5.65394174823775e-05	-2.41180996722245e-15	5.65394174811716e-05	-5.65394174835834e-05
3400                  	7.92618482082844e-02	3.81211687479538e-02	4.11406794603306e-02	2.11650419680751e+00	1.04474499350025e+00	1.07175920330726e+00	-1.35071049035059e-02	-1.50975535618842e-03	5.65394578708155e-05	-2.41180994122036e-15	5.65394578696096e-05	-5.65394578720214e-05
3450                  	7.92618408967490e-02	3.81211651839046e-02	4.11406757128444e-02	2.11650406822863e+00	1.04474492271288e+00	1.07175914551576e+00	-1.35071114014387e-02	-1.50975526446989e-03	5.65394526553108e-05	-2.41180998307798e-15	5.65394526541049e-05	-5.65394526565167e-05
3500                  	7.92617913589069e-02	3.81211405374931e-02	4.11406508214138e-02	2.11650389648430e+00	1.04474484475949e+00	1.07175905172481e+00	-1.35071034826570e-02	-1.50975514196033e-03	5.65394173187271e-05	-2.41180996727944e-15	5.65394173175212e-05	-5.65394173199330e-05
3550                  	7.92618479951283e-02	3.81211686421829e-02	4.11406793529454e-02	2.11650419567595e+00	1.04474499309867e+00	1.07175920257728e+00	-1.35071047393052e-02	-1.50975535538123e-03	5.65394577187603e-05	-2.41180994123032e-15	5.65394577175544e-05	-5.65394577199663e-05
3600                  	7.92618411634075e-02	3.81211653156333e-02	4.11406758477742e-02	2.11650407047244e+00	1.04474492330258e+00	1.07175914716986e+00	-1.35071119336441e-02	-1.50975526607044e-03	5.65394528455232e-05	-2.41180998300377e-15	5.65394528443173e-05	-5.65394528467291e-05
3650                  	7.92617915883262e-02	3.81211406508792e-02	4.11406509374469e-02	2.11650389833970e+00	1.04474484529054e+00	1.07175905304916e+00	-1.35071038793109e-02	-1.50975514328384e-03	5.65394174823775e-05	-2.41180996722245e-15	5.65394174811716e-05	-5.65394174835834e-05
3700                  	7.92618482082811e-02	3.81211687479521e-02	4.11406794603290e-02	2.11650419680751e+00	1.04474499350025e+00	1.07175920330726e+00	-1.35071049035059e-02	-1.50975535618842e-03	5.65394578708171e-05	-2.41180994122036e-15	5.65394578696112e-05	-5.65394578720230e-05
3750                  	7.92618408967490e-02	3.81211651839046e-02	4.11406757128444e-02	2.11650406822863e+00	1.04474492271288e+00	1.07175914551575e+00	-1.35071114014321e-02	-1.50975526446989e-03	5.65394526553108e-05	-2.41180998307798e-15	5.65394526541049e-05	-5.65394526565167e-05
3800                  	7.92617913589069e-02	3.81211405374931e-02	4.11406508214138e-02	2.11650389648430e+00	1.04474484475949e+00	1.07175905172481e+00	-1.35071034826570e-02	-1.50975514196033e-03	5.65394173187271e-05	-2.41180996727944e-15	5.65394173175212e-05	-5.65394173199330e-05
3850                  	7.92618479951299e-02	3.81211686421837e-02	4.11406793529462e-02	2.11650419567595e+00	1.04474499309867e+00	1.07175920257728e+00	-1.35071047393018e-02	-1.50975535538123e-03	5.65394577187603e-05	-2.41180994123032e-15	5.65394577175544e-05	-5.65394577199662e-05
3900                  	7.92618411634092e-02	3.81211653156342e-02	4.11406758477750e-02	2.11650407047244e+00	1.04474492330258e+00	1.07175914716986e+00	-1.35071119336441e-02	-1.50975526607044e-03	5.65394528455232e-05	-2.41180998300377e-15	5.65394528443173e-05	-5.65394528467291e-05
3950                  	7.92617915883301e-02	3.81211406508812e-02	4.11406509374489e-02	2.11650389833971e+00	1.04474484529054e+00	1.07175905304916e+00	-1.35071038793109e-02	-1.50975514328384e-03	5.65394174823791e-05	-2.41180996722245e-15	5.65394174811732e-05	-5.65394174835850e-05
4000                  	7.92618482082811e-02	3.81211687479521e-02	4.11406794603290e-02	2.11650419680751e+00	1.04474499350025e+00	1.07175920330726e+00	-1.35071049035093e-02	-1.50975535618843e-03	5.65394578708178e-05	-2.41180994122036e-15	5.65394578696119e-05	-5.65394578720237e-05
4050                  	7.92618408967490e-02	3.81211651839046e-02	4.11406757128444e-02	2.11650406822863e+00	1.04474492271288e+00	1.07175914551576e+00	-1.35071114014387e-02	-1.50975526446989e-03	5.65394526553124e-05	-2.41180998307798e-15	5.65394526541065e-05	-5.65394526565183e-05
4100                  	7.92617913589069e-02	3.81211405374931e-02	4.11406508214138e-02	2.11650389648430e+00	1.04474484475949e+00	1.07175905172481e+00	-1.35071034826570e-02	-1.50975514196033e-03	5.65394173187271e-05	-2.41180996727944e-15	5.65394173175212e-05	-5.65394173199330e-05
4150                  	7.92618479951306e-02	3.81211686421841e-02	4.11406793529465e-02	2.11650419567597e+00	1.04474499309868e+00	1.07175920257729e+00	-1.35071047393052e-02	-1.50975535538123e-03	5.65394577187603e-05	-2.41180994123032e-15	5.65394577175544e-05	-5.65394577199662e-05
4200                  	7.92618411634092e-02	3.81211653156342e-02	4.11406758477750e-02	2.11650407047244e+00	1.04474492330258e+00	1.07175914716986e+00	-1.35071119336441e-02	-1.50975526607042e-03	5.65394528455209e-05	-2.41180998300377e-15	5.65394528443150e-05	-5.65394528467268e-05
4250                  	7.92617915883278e-02	3.81211406508800e-02	4.11406509374477e-02	2.11650389833970e+00	1.04474484529054e+00	1.07175905304916e+00	-1.35071038793109e-02	-1.50975514328384e-03	5.65394174823791e-05	-2.41180996722245e-15	5.65394174811732e-05	-5.65394174835850e-05
4300                  	7.92618482082811e-02	3.81211687479521e-02	4.11406794603290e-02	2.11650419680751e+00	1.04474499350025e+00	1.07175920330726e+00	-1.35071049035059e-02	-1.50975535618842e-03	5.65394578708155e-05	-2.41180994122036e-15	5.65394578696096e-05	-5.65394578720214e-05
4350                  	7.92618408967490e-02	3.81211651839046e-02	4.11406757128444e-02	2.11650406822863e+00	1.04474492271288e+00	1.07175914551575e+00	-1.35071114014321e-02	-1.50975526446989e-03	5.65394526553124e-05	-2.41180998307798e-15	5.65394526541065e-05	-5.65394526565183e-05
4400                  	7.92617913589069e-02	3.81211405374931e-02	4.11406508214138e-02	2.11650389648430e+00	1.04474484475949e+00	1.07175905172481e+00	-1.35071034826570e-02	-1.50975514196033e-03	5.65394173187271e-05	-2.41180996727944e-15	5.65394173175212e-05	-5.65394173199330e-05
4450                  	7.92618479951283e-02	3.81211686421829e-02	4.11406793529454e-02	2.11650419567595e+00	1.04474499309867e+00	1.07175920257728e+00	-1.35071047393052e-02	-1.50975535538123e-03	5.65394577187571e-05	-2.41180994123032e-15	5.65394577175512e-05	-5.65394577199630e-05
4500                  	7.92618411634092e-02	3.81211653156342e-02	4.11406758477750e-02	2.11650407047244e+00	1.04474492330258e+00	1.07175914716986e+00	-1.35071119336441e-02	-1.50975526607044e-03	5.65394528455232e-05	-2.41180998300377e-15	5.65394528443173e-05	-5.65394528467291e-05
4550                  	7.92617915883301e-02	3.81211406508812e-02	4.11406509374489e-02	2.11650389833971e+00	1.04474484529054e+00	1.07175905304916e+00	-1.35071038793109e-02	-1.50975514328384e-03	5.65394174823791e-05	-2.41180996722245e-15	5.65394174811732e-05	-5.65394174835850e-05
4600                  	7.92618482082858e-02	3.81211687479545e-02	4.11406794603313e-02	2.11650419680754e+00	1.04474499350026e+00	1.07175920330727e+00	-1.35071049035059e-02	-1.50975535618842e-03	5.65394578708155e-05	-2.41180994122036e-15	5.65394578696096e-05	-5.65394578720214e-05
4650                  	7.92618408967490e-02	3.81211651839046e-02	4.11406757128444e-02	2.11650406822863e+00	1.04474492271288e+00	1.07175914551575e+00	-1.35071114014321e-02	-1.50975526446989e-03	5.65394526553108e-05	-2.41180998307798e-15	5.65394526541049e-05	-5.65394526565167e-05
4700                  	7.92617913589069e-02	3.81211405374931e-02	4.11406508214138e-02	2.11650389648430e+00	1.04474484475949e+00	1.07175905172481e+00	-1.35071034826570e-02	-1.50975514196033e-03	5.65394173187271e-05	-2.41180996727944e-15	5.65394173175212e-05	-5.65394173199330e-05
4750                  	7.92618479951322e-02	3.81211686421849e-02	4.11406793529473e-02	2.11650419567597e+00	1.04474499309868e+00	1.07175920257729e+00	-1.35071047393052e-02	-1.50975535538123e-03	5.65394577187587e-05	-2.41180994123032e-15	5.65394577175528e-05	-5.65394577199646e-05
4800                  	7.92618411634092e-02	3.81211653156342e-02	4.11406758477750e-02	2.11650407047244e+00	1.04474492330258e+00	1.07175914716986e+00	-1.35071119336441e-02	-1.50975526607044e-03	5.65394528455248e-05	-2.41180998300377e-15	5.65394528443189e-05	-5.65394528467307e-05
4850                  	7.92617915883278e-02	3.81211406508801e-02	4.11406509374477e-02	2.11650389833970e+00	1.04474484529054e+00	1.07175905304916e+00	-1.35071038793109e-02	-1.50975514328384e-03	5.65394174823791e-05	-2.41180996722245e-15	5.65394174811732e-05	-5.65394174835850e-05
4900                  	7.92618482082890e-02	3.81211687479561e-02	4.11406794603330e-02	2.11650419680754e+00	1.04474499350026e+00	1.07175920330727e+00	-1.35071049035059e-02	-1.50975535618844e-03	5.65394578708201e-05	-2.41180994122036e-15	5.65394578696142e-05	-5.65394578720260e-05
4950                  	7.92618408967490e-02	3.81211651839046e-02	4.11406757128444e-02	2.11650406822863e+00	1.04474492271288e+00	1.07175914551576e+00	-1.35071114014387e-02	-1.50975526446989e-03	5.65394526553108e-05	-2.41180998307798e-15	5.65394526541049e-05	-5.65394526565167e-05
5000                  	7.92617913589069e-02	3.81211405374931e-02	4.11406508214138e-02	2.11650389648430e+00	1.04474484475949e+00	1.07175905172481e+00	-1.35071034826570e-02	-1.50975514196033e-03	5.65394173187271e-05	-2.41180996727944e-15	5.65394173175212e-05	-5.65394173199330e-05
